 Gaussian 16, Revision B.01,
 Gaussian 16:  ES64L-G16RevB.01 20-Dec-2017

 -------------------
 #HF/3-21G* Opt Test
 -------------------

 ---
 H2O
 ---
 Symbolic Z-matrix:
 Charge =  0 Multiplicity = 1

 SCF Done:  E(RHF) =  -75.5844730215     A.U. after   10 cycles
 SCF Done:  E(RHF) =  -75.5859224342     A.U. after    9 cycles
 SCF Done:  E(RHF) =  -75.5859578641     A.U. after    8 cycles
 SCF Done:  E(RHF) =  -75.5859597509     A.U. after    7 cycles
 Optimization completed.
    -- Stationary point found.

                         Standard orientation:
 ---------------------------------------------------------------------
 Center     Atomic      Atomic             Coordinates (Angstroms)
 Number     Number       Type             X           Y           Z
 ---------------------------------------------------------------------
      1          8           0       -0.000000    0.114068    0.000000
      2          1           0        0.780407   -0.456242    0.000000
      3          1           0       -0.780407   -0.456300    0.000000
 ---------------------------------------------------------------------

 The electronic state is 1-A'.
 Alpha  occ. eigenvalues --  -20.42720  -1.32100  -0.68557  -0.52984  -0.47724
 Alpha virt. eigenvalues --    0.26109   0.36035   1.20667   1.27675   1.78397
 Alpha virt. eigenvalues --    1.86333   2.02479   3.10334

 Mulliken charges:
               1
     1  O   -0.732852
     2  H    0.366430
     3  H    0.366422
 Sum of Mulliken charges =  -0.00000

 Dipole moment (field-independent basis, Debye):
    X=              0.0000    Y=             -2.3874    Z=             -0.0000  Tot=              2.3874
 Quadrupole moment (field-independent basis, Debye-Ang):
   XX=             -3.9720   YY=             -5.8822   ZZ=             -6.8379
   XY=              0.0001   XZ=             -0.0000   YZ=             -0.0000

 Normal termination of Gaussian 16 at Tue Apr 10 16:13:30 2018.
